 +-------------------------------------------------+
 |                                                 |
 |      CCC   AA    SSS  TTTTT  EEEEE  PPPP        |
 |     C     A  A  S       T    E      P   P       |
 |     C     AAAA   SS     T    EEE    PPPP        |
 |     C     A  A     S    T    E      P           |
 |      CCC  A  A  SSS     T    EEEEE  P           |
 |                                                 |
 +-------------------------------------------------+
 |                                                 |
 | Welcome to Academic Release CASTEP version 20.11|          
 | Ab Initio Total Energy Program                  |
 |                                                 |
 | Authors:                                        |
 | M. Segall, M. Probert, C. Pickard, P. Hasnip,   |
 | S. Clark, K. Refson, J. R. Yates, M. Payne      |
 |                                                 |
 | Contributors:                                   |
 | P. Lindan, P. Haynes, J. White, V. Milman,      |
 | N. Govind, M. Gibson, P. Tulip, V. Cocula,      |
 | B. Montanari, D. Quigley, M. Glover,            |
 | L. Bernasconi, A. Perlov, M. Plummer,           |
 | E. McNellis, J. Meyer, J. Gale, D. Jochym       |
 | J. Aarons, B. Walker, R. Gillen, D. Jones       |
 | T. Green, I. J. Bush, C. J. Armstrong,          |
 | E. J. Higgins, E. L. Brown, M. S. McFly,        |
 | J. Wilkins, B-C. Shih, P. J. P. Byrne,          |
 | R. J. Maurer, J. C. Womack, J. Dziedzic,        |
 | J. R. Kermode, A. Bartok-Partay                 |
 |                                                 |
 | Copyright (c) 2000 - 2020                       |
 |                                                 |
 |     Distributed under license from Cambridge    |
 |     Enterprise for academic use only.           |
 |                                                 |
 | Please cite                                     |
 |                                                 |
 |     "First principles methods using CASTEP"     |
 |                                                 |
 |         Zeitschrift fuer Kristallographie       |
 |           220(5-6) pp. 567-570 (2005)           |
 |                                                 |
 | S. J. Clark, M. D. Segall, C. J. Pickard,       |
 | P. J. Hasnip, M. J. Probert, K. Refson,         |
 | M. C. Payne                                     |
 |                                                 |
 |       in all publications arising from          |
 |              your use of CASTEP                 |
 |                                                 |
 +-------------------------------------------------+
 |                                                 |
 |              http://www.castep.org              |
 |                                                 |
 +-------------------------------------------------+



 Compiled for linux_x86_64_gfortran on Sat, 29 May 2021 13:01:11 +0100
 from code version 26f4f9473+  Castep201_branch  Mon Apr 26 22:54:58 2021 +0100
 Compiler: GNU Fortran 9.3.0; Optimisation: fast
 MATHLIBS: Intel MKL(2021.1-Product) (LAPACK version 3.9.0)
 FFT Lib : mkl
 Fundamental constants values: CODATA 2014

 Run started: Sat, 24 Sep 2022 18:10:18 +0100

 Atomic calculation performed for B: 1s2 2s2 2p1

 Converged in 48 iterations to an ae energy of -669.487 eV

   ============================================================                
   | Pseudopotential Report - Date of generation 24-09-2022   |                
   ------------------------------------------------------------                
   | Element: B Ionic charge:  3.00 Level of theory: PBE      |                
   | Atomic Solver: Koelling-Harmon                           |                
   |                                                          |                
   |               Reference Electronic Structure             |                
   |         Orbital         Occupation         Energy        |                
   |            2s              2.000           -0.347        |                
   |            2p              1.000           -0.133        |                
   |                                                          |                
   |                 Pseudopotential Definition               |                
   |        Beta     l      e      Rc     scheme   norm       |                
   |          1      0   -0.347   1.405     qc      0         |                
   |          2      0    0.250   1.405     qc      0         |                
   |          3      1   -0.133   1.405     qc      0         |                
   |          4      1    0.250   1.405     qc      0         |                
   |         loc     2    0.000   1.405     pn      0         |                
   |                                                          |                
   | Augmentation charge Rinner = 0.982                       |                
   | Partial core correction Rc = 0.982                       |                
   ------------------------------------------------------------                
   | "2|1.4|7|7|9|20:21(qc=5)"                                |                
   ------------------------------------------------------------                
   |      Author: Chris J. Pickard, Cambridge University      |                
   ============================================================                

 Pseudo atomic calculation performed for B 2s2 2p1

 Converged in 15 iterations to a total energy of -76.1705 eV
 Calculation parallelised over 4 processes.
 Data is distributed by k-point(4-way)

 ************************************ Title ************************************
 

 ***************************** General Parameters ******************************
  
 output verbosity                               : normal  (1)
 write checkpoint data to                       : B-gamma.check
 type of calculation                            : geometry optimization
 stress calculation                             : on
 density difference calculation                 : off
 electron localisation func (ELF) calculation   : off
 Hirshfeld analysis                             : off
 molecular orbital projected DOS                : off
 deltaSCF calculation                           : off
 unlimited duration calculation
 timing information                             : on
 memory usage estimate                          : on
 write extra output files                       : on
 write final potential to formatted file        : off
 write final density to formatted file          : off
 write structure in CELL formatted file         : on
 write BibTeX reference list                    : off
 write OTFG pseudopotential files               : on
 write electrostatic potential file             : off
 write bands file                               : off
 checkpoint writing                             : off
  
 output         length unit                     : A
 output           mass unit                     : amu
 output           time unit                     : ps
 output         charge unit                     : e
 output           spin unit                     : hbar/2
 output         energy unit                     : eV
 output          force unit                     : eV/A
 output       velocity unit                     : A/ps
 output       pressure unit                     : GPa
 output     inv_length unit                     : 1/A
 output      frequency unit                     : cm-1
 output force constant unit                     : eV/A**2
 output         volume unit                     : A**3
 output   IR intensity unit                     : (D/A)**2/amu
 output         dipole unit                     : D
 output         efield unit                     : eV/A/e
 output        entropy unit                     : J/mol/K
 output    efield chi2 unit                     : pm/V
  
 wavefunctions paging                           : none
 random number generator seed                   : randomised (181018817)
 data distribution                              : optimal for this architecture
 optimization strategy                          : maximize speed(+++)

 *********************** Exchange-Correlation Parameters ***********************
  
 using functional                               : Perdew Burke Ernzerhof
 relativistic treatment                         : Koelling-Harmon
 DFT+D: Semi-empirical dispersion correction    : off

 ************************* Pseudopotential Parameters **************************
  
 pseudopotential representation                 : reciprocal space
 <beta|phi> representation                      : reciprocal space
 spin-orbit coupling                            : off

 **************************** Basis Set Parameters *****************************
  
 plane wave basis set cut-off                   :   340.0000   eV
 size of standard grid                          :     1.7500
 size of   fine   gmax                          :    16.5316   1/A
 finite basis set correction                    : none

 **************************** Electronic Parameters ****************************
  
 number of  electrons                           :  84.00    
 net charge of system                           :  0.000    
 treating system as non-spin-polarized
 number of bands                                :         62

 ********************* Electronic Minimization Parameters **********************
  
 Method: Treating system as metallic with density mixing treatment of electrons,
         and number of  SD  steps               :          1
         and number of  CG  steps               :          4
  
 total energy / atom convergence tol.           : 0.1000E-04   eV
 eigen-energy convergence tolerance             : 0.1000E-05   eV
 max force / atom convergence tol.              : ignored
 convergence tolerance window                   :          3   cycles
 max. number of SCF cycles                      :        100
 number of fixed-spin iterations                :         10
 smearing scheme                                : Gaussian
 smearing width                                 : 0.2000       eV
 Fermi energy convergence tolerance             : 0.2721E-13   eV
 periodic dipole correction                     : NONE

 ************************** Density Mixing Parameters **************************
  
 density-mixing scheme                          : Pulay
 max. length of mixing history                  :         20
 charge density mixing amplitude                : 0.8000    
 cut-off energy for mixing                      :  340.0       eV

 *********************** Population Analysis Parameters ************************
  
 Population analysis with cutoff                :  3.000       A
 Population analysis output                     : summary and pdos components

 ********************** Geometry Optimization Parameters ***********************
  
 optimization method                            : LBFGS
 max. no. of LBFGS updates                      : unbounded
 variable cell method                           : fixed basis size
 max. number of steps                           :          3
 estimated bulk modulus                         :  500.0       GPa
 estimated <frequency>                          :  1668.       cm-1
 geom line minimiser                            : on
 with line minimiser tolerance                  :     0.4000
 total energy convergence tolerance             : 0.2000E-04   eV/atom
        max ionic |force| tolerance             : 0.5000E-01   eV/A
 max ionic |displacement| tolerance             : 0.1000E-02   A
   max |stress component| tolerance             : 0.1000       GPa
 convergence tolerance window                   :          2   steps
 backup results every                           : 2147483647   steps
 write geom trajectory file                     : off

 *******************************************************************************
  

                           -------------------------------
                                      Unit Cell
                           -------------------------------
        Real Lattice(A)                      Reciprocal Lattice(1/A)
     5.0427950     0.0000000     0.0000000        1.245972780   0.000000000   0.000000000
     0.0000000     5.6121430     0.0000000        0.000000000   1.119569709   0.000000000
     0.0000000     0.0000000     6.9149940        0.000000000   0.000000000   0.908632069

                       Lattice parameters(A)       Cell Angles
                    a =      5.042795          alpha =   90.000000
                    b =      5.612143          beta  =   90.000000
                    c =      6.914994          gamma =   90.000000

                       Current cell volume =           195.700461       A**3
                                   density =             1.546792   AMU/A**3
                                           =             2.568509     g/cm^3

                           -------------------------------
                                     Cell Contents
                           -------------------------------
                         Total number of ions in cell =   28
                      Total number of species in cell =    1
                        Max number of any one species =   28

            xxxxxxxxxxxxxxxxxxxxxxxxxxxxxxxxxxxxxxxxxxxxxxxxxxxxxxxxxxxx
            x  Element    Atom        Fractional coordinates of atoms  x
            x            Number           u          v          w      x
            x----------------------------------------------------------x
            x  B            1         0.652508   0.907293   0.290688   x 
            x  B            2         0.347492   0.092707   0.290688   x 
            x  B            3         0.152508   0.592707   0.209312   x 
            x  B            4         0.847492   0.407293   0.209312   x 
            x  B            5         0.347492   0.092707   0.709312   x 
            x  B            6         0.652508   0.907293   0.709312   x 
            x  B            7         0.847492   0.407293   0.790688   x 
            x  B            8         0.152508   0.592707   0.790688   x 
            x  B            9         0.147683   0.771529   0.000000   x 
            x  B           10         0.852317   0.228471   0.000000   x 
            x  B           11         0.647683   0.728471   0.500000   x 
            x  B           12         0.352317   0.271529   0.500000   x 
            x  B           13         0.835416   0.991573   0.500000   x 
            x  B           14         0.164584   0.008427   0.500000   x 
            x  B           15         0.335416   0.508427   0.000000   x 
            x  B           16         0.664584   0.491573   0.000000   x 
            x  B           17         0.338900   0.781252   0.374261   x 
            x  B           18         0.661100   0.218748   0.374261   x 
            x  B           19         0.838900   0.718748   0.125739   x 
            x  B           20         0.161100   0.281252   0.125739   x 
            x  B           21         0.661100   0.218748   0.625739   x 
            x  B           22         0.338900   0.781252   0.625739   x 
            x  B           23         0.161100   0.281252   0.874261   x 
            x  B           24         0.838900   0.718748   0.874261   x 
            x  B           25         0.170314   0.520950   0.500000   x 
            x  B           26         0.829686   0.479050   0.500000   x 
            x  B           27         0.670314   0.979050   0.000000   x 
            x  B           28         0.329686   0.020950   0.000000   x 
            xxxxxxxxxxxxxxxxxxxxxxxxxxxxxxxxxxxxxxxxxxxxxxxxxxxxxxxxxxxx


                         No user defined ionic velocities

                           -------------------------------
                                   Details of Species
                           -------------------------------

                               Mass of species in AMU
                                    B   10.8110000

                          Electric Quadrupole Moment (Barn)
                                    B    0.0405900 Isotope 11

                          Files used for pseudopotentials:
                                    B 2|1.4|7|7|9|20:21(qc=5)

                           -------------------------------
                              k-Points For BZ Sampling
                           -------------------------------
                       MP grid size for SCF calculation is  4  4  3
                            with an offset of   0.000  0.000  0.000
                       Number of kpoints used =             8

                           -------------------------------
                               Symmetry and Constraints
                           -------------------------------

                      Maximum deviation from symmetry = 0.153544E-14     ANG

                      Number of symmetry operations   =           8
                      Number of ionic constraints     =           3
                      Point group of crystal =     8: D2h, mmm, 2/m 2/m 2/m
                      Space group of crystal =    58: Pnnm, -P 2 2n

             Set iprint > 1 for details on symmetry rotations/translations

                         Centre of mass is constrained
             Set iprint > 1 for details of linear ionic constraints

                         Number of cell constraints= 3
                         Cell constraints are:  1 2 3 0 0 0

                         External pressure/stress (GPa)
                          0.00000   0.00000   0.00000
                                    0.00000   0.00000
                                              0.00000
  
+---------------- MEMORY AND SCRATCH DISK ESTIMATES PER PROCESS --------------+
|                                                     Memory          Disk    |
| Baseline code, static data and system overhead      433.0 MB         0.0 MB |
| BLAS internal memory storage                          0.0 MB         0.0 MB |
| Model and support data                               64.4 MB         0.0 MB |
| Electronic energy minimisation requirements          31.0 MB         0.0 MB |
| Force calculation requirements                        4.7 MB         0.0 MB |
| Stress calculation requirements                       5.2 MB         0.0 MB |
|                                               ----------------------------- |
| Approx. total storage required per process          528.4 MB         0.0 MB |
|                                                                             |
| Requirements will fluctuate during execution and may exceed these estimates |
+-----------------------------------------------------------------------------+
Calculating total energy with cut-off of  340.000 eV.
------------------------------------------------------------------------ <-- SCF
SCF loop      Energy           Fermi           Energy gain       Timer   <-- SCF
                               energy          per atom          (sec)   <-- SCF
------------------------------------------------------------------------ <-- SCF
Initial   8.32225367E+002  0.00000000E+000                         2.30  <-- SCF
      1  -2.05752223E+003  8.69570793E+000   1.03205271E+002       3.40  <-- SCF
      2  -2.32071535E+003  7.93427812E+000   9.39975431E+000       4.60  <-- SCF
      3  -2.32743488E+003  7.77654420E+000   2.39983434E-001       5.57  <-- SCF
      4  -2.32054555E+003  8.08300750E+000  -2.46047808E-001       6.73  <-- SCF
      5  -2.32031195E+003  8.24394435E+000  -8.34287992E-003       7.94  <-- SCF
      6  -2.32030890E+003  8.26903087E+000  -1.08704104E-004       9.07  <-- SCF
      7  -2.32031091E+003  8.27634499E+000   7.15755747E-005      10.19  <-- SCF
      8  -2.32031101E+003  8.27680737E+000   3.84102844E-006      11.24  <-- SCF
      9  -2.32031102E+003  8.27700608E+000   2.82820005E-007      12.03  <-- SCF
------------------------------------------------------------------------ <-- SCF
 
Final energy, E             =  -2320.311021375     eV
Final free energy (E-TS)    =  -2320.311021375     eV
(energies not corrected for finite basis set)
 
NB est. 0K energy (E-0.5TS)      =  -2320.311021375     eV
 

WARNING - doing cell minimisation without finite basis correction:
        => now searching for a stationary and not minimum energy
 
+---------------- MEMORY AND SCRATCH DISK ESTIMATES PER PROCESS --------------+
|                                                     Memory          Disk    |
| Model and support data                               74.0 MB         0.0 MB |
| Electronic energy minimisation requirements          31.0 MB         0.0 MB |
| Geometry minimisation requirements                   37.3 MB         0.0 MB |
|                                               ----------------------------- |
| Approx. total storage required per process          142.2 MB         0.0 MB |
|                                                                             |
| Requirements will fluctuate during execution and may exceed these estimates |
+-----------------------------------------------------------------------------+
 

 ******************************** Symmetrised Forces ********************************
 *                                                                                  *
 *                           Cartesian components (eV/A)                            *
 * -------------------------------------------------------------------------------- *
 *                         x                    y                    z              *
 *                                                                                  *
 * B               1     -0.00374              0.01658              0.02011         *
 * B               2      0.00374             -0.01658              0.02011         *
 * B               3     -0.00374             -0.01658             -0.02011         *
 * B               4      0.00374              0.01658             -0.02011         *
 * B               5      0.00374             -0.01658             -0.02011         *
 * B               6     -0.00374              0.01658             -0.02011         *
 * B               7      0.00374              0.01658              0.02011         *
 * B               8     -0.00374             -0.01658              0.02011         *
 * B               9      0.01610             -0.01995             -0.00000         *
 * B              10     -0.01610              0.01995              0.00000         *
 * B              11      0.01610              0.01995              0.00000         *
 * B              12     -0.01610             -0.01995             -0.00000         *
 * B              13      0.05557             -0.00198              0.00000         *
 * B              14     -0.05557              0.00198              0.00000         *
 * B              15      0.05557              0.00198              0.00000         *
 * B              16     -0.05557             -0.00198              0.00000         *
 * B              17      0.03340              0.03458              0.02473         *
 * B              18     -0.03340             -0.03458              0.02473         *
 * B              19      0.03340             -0.03458             -0.02473         *
 * B              20     -0.03340              0.03458             -0.02473         *
 * B              21     -0.03340             -0.03458             -0.02473         *
 * B              22      0.03340              0.03458             -0.02473         *
 * B              23     -0.03340              0.03458              0.02473         *
 * B              24      0.03340             -0.03458              0.02473         *
 * B              25     -0.03204             -0.08401              0.00000         *
 * B              26      0.03204              0.08401             -0.00000         *
 * B              27     -0.03204              0.08401             -0.00000         *
 * B              28      0.03204             -0.08401              0.00000         *
 *                                                                                  *
 ************************************************************************************

 *********** Symmetrised Stress Tensor ***********
 *                                               *
 *          Cartesian components (GPa)           *
 * --------------------------------------------- *
 *             x             y             z     *
 *                                               *
 *  x      1.621236      0.000000      0.000000  *
 *  y      0.000000      1.277603      0.000000  *
 *  z      0.000000      0.000000      1.377314  *
 *                                               *
 *  Pressure:   -1.4254                          *
 *                                               *
 *************************************************
 LBFGS: finished iteration     0 with enthalpy= -2.32031102E+003 eV
  
 +-----------+-----------------+-----------------+------------+-----+ <-- LBFGS
 | Parameter |      value      |    tolerance    |    units   | OK? | <-- LBFGS
 +-----------+-----------------+-----------------+------------+-----+ <-- LBFGS
 |  dE/ion   |   0.000000E+000 |   2.000000E-005 |         eV | No  | <-- LBFGS
 |  |F|max   |   8.991757E-002 |   5.000000E-002 |       eV/A | No  | <-- LBFGS
 |  |dR|max  |   2.228674E-015 |   1.000000E-003 |          A | No  | <-- LBFGS
 |   Smax    |   1.621236E+000 |   1.000000E-001 |        GPa | No  | <-- LBFGS
 +-----------+-----------------+-----------------+------------+-----+ <-- LBFGS
  

================================================================================
 Starting LBFGS iteration          1 ...
================================================================================
  
 +------------+-------------+-------------+-----------------+ <-- min LBFGS
 |    Step    |   lambda    |   F.delta'  |    enthalpy     | <-- min LBFGS
 +------------+-------------+-------------+-----------------+ <-- min LBFGS
 |  previous  |    0.000000 |    0.122168 |    -2320.311021 | <-- min LBFGS
 +------------+-------------+-------------+-----------------+ <-- min LBFGS
  

--------------------------------------------------------------------------------
 LBFGS: starting iteration         1 with trial guess (lambda=  1.000000)
--------------------------------------------------------------------------------

                           -------------------------------
                                      Unit Cell
                           -------------------------------
        Real Lattice(A)              Reciprocal Lattice(1/A)
     5.0373446     0.0000000     0.0000000        1.247320915   0.000000000   0.000000000
     0.0000000     5.6073629     0.0000000        0.000000000   1.120524100   0.000000000
     0.0000000     0.0000000     6.9086446        0.000000000   0.000000000   0.909467151

                       Lattice parameters(A)       Cell Angles
                    a =      5.037345          alpha =   90.000000
                    b =      5.607363          beta  =   90.000000
                    c =      6.908645          gamma =   90.000000

                Current cell volume =           195.143092 A**3
                            density =             1.551210 amu/A**3
                                    =             2.575845 g/cm^3

                           -------------------------------
                                     Cell Contents
                           -------------------------------

            xxxxxxxxxxxxxxxxxxxxxxxxxxxxxxxxxxxxxxxxxxxxxxxxxxxxxxxxxxxxxxxxx
            x  Element         Atom        Fractional coordinates of atoms  x
            x                 Number           u          v          w      x
            x---------------------------------------------------------------x
            x  B                 1         0.652501   0.907320   0.290714   x
            x  B                 2         0.347499   0.092680   0.290714   x
            x  B                 3         0.152501   0.592680   0.209286   x
            x  B                 4         0.847499   0.407320   0.209286   x
            x  B                 5         0.347499   0.092680   0.709286   x
            x  B                 6         0.652501   0.907320   0.709286   x
            x  B                 7         0.847499   0.407320   0.790714   x
            x  B                 8         0.152501   0.592680   0.790714   x
            x  B                 9         0.147712   0.771497   0.000000   x
            x  B                10         0.852288   0.228503   0.000000   x
            x  B                11         0.647712   0.728503   0.500000   x
            x  B                12         0.352288   0.271497   0.500000   x
            x  B                13         0.835516   0.991570   0.500000   x
            x  B                14         0.164484   0.008430   0.500000   x
            x  B                15         0.335516   0.508430   0.000000   x
            x  B                16         0.664484   0.491570   0.000000   x
            x  B                17         0.338960   0.781308   0.374293   x
            x  B                18         0.661040   0.218692   0.374293   x
            x  B                19         0.838960   0.718692   0.125707   x
            x  B                20         0.161040   0.281308   0.125707   x
            x  B                21         0.661040   0.218692   0.625707   x
            x  B                22         0.338960   0.781308   0.625707   x
            x  B                23         0.161040   0.281308   0.874293   x
            x  B                24         0.838960   0.718692   0.874293   x
            x  B                25         0.170257   0.520815   0.500000   x
            x  B                26         0.829743   0.479185   0.500000   x
            x  B                27         0.670257   0.979185  -0.000000   x
            x  B                28         0.329743   0.020815   0.000000   x
            xxxxxxxxxxxxxxxxxxxxxxxxxxxxxxxxxxxxxxxxxxxxxxxxxxxxxxxxxxxxxxxxx


------------------------------------------------------------------------ <-- SCF
SCF loop      Energy           Fermi           Energy gain       Timer   <-- SCF
                               energy          per atom          (sec)   <-- SCF
------------------------------------------------------------------------ <-- SCF
Initial  -2.32024163E+003  0.00000000E+000                        16.52  <-- SCF
      1  -2.32031641E+003  8.31011750E+000   2.67094103E-003      17.49  <-- SCF
      2  -2.32031642E+003  8.31011731E+000   2.68374426E-007      18.35  <-- SCF
      3  -2.32031530E+003  8.30806821E+000  -3.99460254E-005      19.42  <-- SCF
      4  -2.32031529E+003  8.30754648E+000  -3.96947384E-007      20.16  <-- SCF
      5  -2.32031529E+003  8.30735650E+000  -6.01714426E-010      20.92  <-- SCF
------------------------------------------------------------------------ <-- SCF
 
Final energy, E             =  -2320.315290190     eV
Final free energy (E-TS)    =  -2320.315290190     eV
(energies not corrected for finite basis set)
 
NB est. 0K energy (E-0.5TS)      =  -2320.315290190     eV
 

 ******************************** Symmetrised Forces ********************************
 *                                                                                  *
 *                           Cartesian components (eV/A)                            *
 * -------------------------------------------------------------------------------- *
 *                         x                    y                    z              *
 *                                                                                  *
 * B               1      0.00471              0.01517             -0.00196         *
 * B               2     -0.00471             -0.01517             -0.00196         *
 * B               3      0.00471             -0.01517              0.00196         *
 * B               4     -0.00471              0.01517              0.00196         *
 * B               5     -0.00471             -0.01517              0.00196         *
 * B               6      0.00471              0.01517              0.00196         *
 * B               7     -0.00471              0.01517             -0.00196         *
 * B               8      0.00471             -0.01517             -0.00196         *
 * B               9      0.01395             -0.01682             -0.00000         *
 * B              10     -0.01395              0.01682              0.00000         *
 * B              11      0.01395              0.01682              0.00000         *
 * B              12     -0.01395             -0.01682             -0.00000         *
 * B              13      0.03519             -0.00141              0.00000         *
 * B              14     -0.03519              0.00141              0.00000         *
 * B              15      0.03519              0.00141              0.00000         *
 * B              16     -0.03519             -0.00141              0.00000         *
 * B              17      0.02209              0.01793              0.00829         *
 * B              18     -0.02209             -0.01793              0.00829         *
 * B              19      0.02209             -0.01793             -0.00829         *
 * B              20     -0.02209              0.01793             -0.00829         *
 * B              21     -0.02209             -0.01793             -0.00829         *
 * B              22      0.02209              0.01793             -0.00829         *
 * B              23     -0.02209              0.01793              0.00829         *
 * B              24      0.02209             -0.01793              0.00829         *
 * B              25     -0.01973             -0.05163             -0.00000         *
 * B              26      0.01973              0.05163              0.00000         *
 * B              27     -0.01973              0.05163              0.00000         *
 * B              28      0.01973             -0.05163             -0.00000         *
 *                                                                                  *
 ************************************************************************************

 *********** Symmetrised Stress Tensor ***********
 *                                               *
 *          Cartesian components (GPa)           *
 * --------------------------------------------- *
 *             x             y             z     *
 *                                               *
 *  x      0.802502     -0.000000      0.000000  *
 *  y     -0.000000      0.578267      0.000000  *
 *  z      0.000000      0.000000      0.698511  *
 *                                               *
 *  Pressure:   -0.6931                          *
 *                                               *
 *************************************************
  
 +------------+-------------+-------------+-----------------+ <-- min LBFGS
 |    Step    |   lambda    |   F.delta'  |    enthalpy     | <-- min LBFGS
 +------------+-------------+-------------+-----------------+ <-- min LBFGS
 |  previous  |    0.000000 |    0.122168 |    -2320.311021 | <-- min LBFGS
 | trial step |    1.000000 |    0.060774 |    -2320.315290 | <-- min LBFGS
 +------------+-------------+-------------+-----------------+ <-- min LBFGS
  

--------------------------------------------------------------------------------
 LBFGS: improving iteration         1 with line minimization (lambda=  1.989920)
--------------------------------------------------------------------------------

                           -------------------------------
                                      Unit Cell
                           -------------------------------
        Real Lattice(A)              Reciprocal Lattice(1/A)
     5.0319492     0.0000000     0.0000000        1.248658336   0.000000000   0.000000000
     0.0000000     5.6026311     0.0000000        0.000000000   1.121470473   0.000000000
     0.0000000     0.0000000     6.9023592        0.000000000   0.000000000   0.910295327

                       Lattice parameters(A)       Cell Angles
                    a =      5.031949          alpha =   90.000000
                    b =      5.602631          beta  =   90.000000
                    c =      6.902359          gamma =   90.000000

                Current cell volume =           194.592379 A**3
                            density =             1.555600 amu/A**3
                                    =             2.583135 g/cm^3

                           -------------------------------
                                     Cell Contents
                           -------------------------------

            xxxxxxxxxxxxxxxxxxxxxxxxxxxxxxxxxxxxxxxxxxxxxxxxxxxxxxxxxxxxxxxxx
            x  Element         Atom        Fractional coordinates of atoms  x
            x                 Number           u          v          w      x
            x---------------------------------------------------------------x
            x  B                 1         0.652495   0.907346   0.290740   x
            x  B                 2         0.347505   0.092654   0.290740   x
            x  B                 3         0.152495   0.592654   0.209260   x
            x  B                 4         0.847505   0.407346   0.209260   x
            x  B                 5         0.347505   0.092654   0.709260   x
            x  B                 6         0.652495   0.907346   0.709260   x
            x  B                 7         0.847505   0.407346   0.790740   x
            x  B                 8         0.152495   0.592654   0.790740   x
            x  B                 9         0.147740   0.771465   0.000000   x
            x  B                10         0.852260   0.228535   0.000000   x
            x  B                11         0.647740   0.728535   0.500000   x
            x  B                12         0.352260   0.271465   0.500000   x
            x  B                13         0.835614   0.991567   0.500000   x
            x  B                14         0.164386   0.008433   0.500000   x
            x  B                15         0.335614   0.508433   0.000000   x
            x  B                16         0.664386   0.491567   0.000000   x
            x  B                17         0.339019   0.781363   0.374325   x
            x  B                18         0.660981   0.218637   0.374325   x
            x  B                19         0.839019   0.718637   0.125675   x
            x  B                20         0.160981   0.281363   0.125675   x
            x  B                21         0.660981   0.218637   0.625675   x
            x  B                22         0.339019   0.781363   0.625675   x
            x  B                23         0.160981   0.281363   0.874325   x
            x  B                24         0.839019   0.718637   0.874325   x
            x  B                25         0.170200   0.520681   0.500000   x
            x  B                26         0.829800   0.479319   0.500000   x
            x  B                27         0.670200   0.979319  -0.000000   x
            x  B                28         0.329800   0.020681   0.000000   x
            xxxxxxxxxxxxxxxxxxxxxxxxxxxxxxxxxxxxxxxxxxxxxxxxxxxxxxxxxxxxxxxxx


------------------------------------------------------------------------ <-- SCF
SCF loop      Energy           Fermi           Energy gain       Timer   <-- SCF
                               energy          per atom          (sec)   <-- SCF
------------------------------------------------------------------------ <-- SCF
Initial  -2.32024322E+003  0.00000000E+000                        25.12  <-- SCF
      1  -2.32031777E+003  8.34017539E+000   2.66251405E-003      26.07  <-- SCF
      2  -2.32031778E+003  8.34017519E+000   2.57650391E-007      26.98  <-- SCF
      3  -2.32031669E+003  8.33817032E+000  -3.88437347E-005      28.14  <-- SCF
      4  -2.32031668E+003  8.33764071E+000  -3.80275037E-007      28.90  <-- SCF
      5  -2.32031668E+003  8.33745446E+000  -3.41052990E-010      29.61  <-- SCF
------------------------------------------------------------------------ <-- SCF
 
Final energy, E             =  -2320.316680319     eV
Final free energy (E-TS)    =  -2320.316680319     eV
(energies not corrected for finite basis set)
 
NB est. 0K energy (E-0.5TS)      =  -2320.316680319     eV
 

 ******************************** Symmetrised Forces ********************************
 *                                                                                  *
 *                           Cartesian components (eV/A)                            *
 * -------------------------------------------------------------------------------- *
 *                         x                    y                    z              *
 *                                                                                  *
 * B               1      0.01319              0.01379             -0.02389         *
 * B               2     -0.01319             -0.01379             -0.02389         *
 * B               3      0.01319             -0.01379              0.02389         *
 * B               4     -0.01319              0.01379              0.02389         *
 * B               5     -0.01319             -0.01379              0.02389         *
 * B               6      0.01319              0.01379              0.02389         *
 * B               7     -0.01319              0.01379             -0.02389         *
 * B               8      0.01319             -0.01379             -0.02389         *
 * B               9      0.01204             -0.01387             -0.00000         *
 * B              10     -0.01204              0.01387             -0.00000         *
 * B              11      0.01204              0.01387             -0.00000         *
 * B              12     -0.01204             -0.01387             -0.00000         *
 * B              13      0.01463             -0.00098             -0.00000         *
 * B              14     -0.01463              0.00098             -0.00000         *
 * B              15      0.01463              0.00098             -0.00000         *
 * B              16     -0.01463             -0.00098             -0.00000         *
 * B              17      0.01069              0.00132             -0.00823         *
 * B              18     -0.01069             -0.00132             -0.00823         *
 * B              19      0.01069             -0.00132              0.00823         *
 * B              20     -0.01069              0.00132              0.00823         *
 * B              21     -0.01069             -0.00132              0.00823         *
 * B              22      0.01069              0.00132              0.00823         *
 * B              23     -0.01069              0.00132             -0.00823         *
 * B              24      0.01069             -0.00132             -0.00823         *
 * B              25     -0.00732             -0.01929              0.00000         *
 * B              26      0.00732              0.01929             -0.00000         *
 * B              27     -0.00732              0.01929             -0.00000         *
 * B              28      0.00732             -0.01929              0.00000         *
 *                                                                                  *
 ************************************************************************************

 *********** Symmetrised Stress Tensor ***********
 *                                               *
 *          Cartesian components (GPa)           *
 * --------------------------------------------- *
 *             x             y             z     *
 *                                               *
 *  x     -0.019603     -0.000000      0.000000  *
 *  y     -0.000000     -0.121207      0.000000  *
 *  z      0.000000      0.000000      0.019826  *
 *                                               *
 *  Pressure:    0.0403                          *
 *                                               *
 *************************************************
  
 +------------+-------------+-------------+-----------------+ <-- min LBFGS
 |    Step    |   lambda    |   F.delta'  |    enthalpy     | <-- min LBFGS
 +------------+-------------+-------------+-----------------+ <-- min LBFGS
 |  previous  |    0.000000 |    0.122168 |    -2320.311021 | <-- min LBFGS
 | trial step |    1.000000 |    0.060774 |    -2320.315290 | <-- min LBFGS
 |  line step |    1.989920 |   -0.000498 |    -2320.316680 | <-- min LBFGS
 +------------+-------------+-------------+-----------------+ <-- min LBFGS
  
 LBFGS: finished iteration     1 with enthalpy= -2.32031668E+003 eV
  
 +-----------+-----------------+-----------------+------------+-----+ <-- LBFGS
 | Parameter |      value      |    tolerance    |    units   | OK? | <-- LBFGS
 +-----------+-----------------+-----------------+------------+-----+ <-- LBFGS
 |  dE/ion   |   2.021051E-004 |   2.000000E-005 |         eV | No  | <-- LBFGS
 |  |F|max   |   3.057759E-002 |   5.000000E-002 |       eV/A | Yes | <-- LBFGS
 |  |dR|max  |   1.615154E-003 |   1.000000E-003 |          A | No  | <-- LBFGS
 |   Smax    |   1.212066E-001 |   1.000000E-001 |        GPa | No  | <-- LBFGS
 +-----------+-----------------+-----------------+------------+-----+ <-- LBFGS
  

================================================================================
 Starting LBFGS iteration          2 ...
================================================================================
  
 +------------+-------------+-------------+-----------------+ <-- min LBFGS
 |    Step    |   lambda    |   F.delta'  |    enthalpy     | <-- min LBFGS
 +------------+-------------+-------------+-----------------+ <-- min LBFGS
 |  previous  |    0.000000 |    0.024156 |    -2320.316680 | <-- min LBFGS
 +------------+-------------+-------------+-----------------+ <-- min LBFGS
  

--------------------------------------------------------------------------------
 LBFGS: starting iteration         2 with trial guess (lambda=  1.000000)
--------------------------------------------------------------------------------

                           -------------------------------
                                      Unit Cell
                           -------------------------------
        Real Lattice(A)              Reciprocal Lattice(1/A)
     5.0319149     0.0000000     0.0000000        1.248666843  -0.000000000   0.000000000
     0.0000000     5.6029935     0.0000000       -0.000000000   1.121397932   0.000000000
     0.0000000     0.0000000     6.9021524        0.000000000   0.000000000   0.910322602

                       Lattice parameters(A)       Cell Angles
                    a =      5.031915          alpha =   90.000000
                    b =      5.602993          beta  =   90.000000
                    c =      6.902152          gamma =   90.000000

                Current cell volume =           194.597810 A**3
                            density =             1.555557 amu/A**3
                                    =             2.583063 g/cm^3

                           -------------------------------
                                     Cell Contents
                           -------------------------------

            xxxxxxxxxxxxxxxxxxxxxxxxxxxxxxxxxxxxxxxxxxxxxxxxxxxxxxxxxxxxxxxxx
            x  Element         Atom        Fractional coordinates of atoms  x
            x                 Number           u          v          w      x
            x---------------------------------------------------------------x
            x  B                 1         0.652518   0.907369   0.290710   x
            x  B                 2         0.347482   0.092631   0.290710   x
            x  B                 3         0.152518   0.592631   0.209290   x
            x  B                 4         0.847482   0.407369   0.209290   x
            x  B                 5         0.347482   0.092631   0.709290   x
            x  B                 6         0.652518   0.907369   0.709290   x
            x  B                 7         0.847482   0.407369   0.790710   x
            x  B                 8         0.152518   0.592631   0.790710   x
            x  B                 9         0.147762   0.771442   0.000000   x
            x  B                10         0.852238   0.228558   0.000000   x
            x  B                11         0.647762   0.728558   0.500000   x
            x  B                12         0.352238   0.271442   0.500000   x
            x  B                13         0.835642   0.991565   0.500000   x
            x  B                14         0.164358   0.008435   0.500000   x
            x  B                15         0.335642   0.508435   0.000000   x
            x  B                16         0.664358   0.491565   0.000000   x
            x  B                17         0.339039   0.781366   0.374315   x
            x  B                18         0.660961   0.218634   0.374315   x
            x  B                19         0.839039   0.718634   0.125685   x
            x  B                20         0.160961   0.281366   0.125685   x
            x  B                21         0.660961   0.218634   0.625685   x
            x  B                22         0.339039   0.781366   0.625685   x
            x  B                23         0.160961   0.281366   0.874315   x
            x  B                24         0.839039   0.718634   0.874315   x
            x  B                25         0.170186   0.520647   0.500000   x
            x  B                26         0.829814   0.479353   0.500000   x
            x  B                27         0.670186   0.979353  -0.000000   x
            x  B                28         0.329814   0.020647  -0.000000   x
            xxxxxxxxxxxxxxxxxxxxxxxxxxxxxxxxxxxxxxxxxxxxxxxxxxxxxxxxxxxxxxxxx


------------------------------------------------------------------------ <-- SCF
SCF loop      Energy           Fermi           Energy gain       Timer   <-- SCF
                               energy          per atom          (sec)   <-- SCF
------------------------------------------------------------------------ <-- SCF
Initial  -2.32028916E+003  0.00000000E+000                        33.93  <-- SCF
      1  -2.32031680E+003  8.33684087E+000   9.87106760E-004      34.80  <-- SCF
      2  -2.32031680E+003  8.33684085E+000   6.36185706E-008      35.47  <-- SCF
      3  -2.32031680E+003  8.33690518E+000  -5.90353266E-008      36.25  <-- SCF
      4  -2.32031680E+003  8.33696581E+000   2.42539154E-009      36.94  <-- SCF
------------------------------------------------------------------------ <-- SCF
 
Final energy, E             =  -2320.316797508     eV
Final free energy (E-TS)    =  -2320.316797508     eV
(energies not corrected for finite basis set)
 
NB est. 0K energy (E-0.5TS)      =  -2320.316797508     eV
 

 ******************************** Symmetrised Forces ********************************
 *                                                                                  *
 *                           Cartesian components (eV/A)                            *
 * -------------------------------------------------------------------------------- *
 *                         x                    y                    z              *
 *                                                                                  *
 * B               1      0.01150              0.01321             -0.01998         *
 * B               2     -0.01150             -0.01321             -0.01998         *
 * B               3      0.01150             -0.01321              0.01998         *
 * B               4     -0.01150              0.01321              0.01998         *
 * B               5     -0.01150             -0.01321              0.01998         *
 * B               6      0.01150              0.01321              0.01998         *
 * B               7     -0.01150              0.01321             -0.01998         *
 * B               8      0.01150             -0.01321             -0.01998         *
 * B               9      0.01048             -0.01471              0.00000         *
 * B              10     -0.01048              0.01471             -0.00000         *
 * B              11      0.01048              0.01471              0.00000         *
 * B              12     -0.01048             -0.01471              0.00000         *
 * B              13      0.00654              0.00140             -0.00000         *
 * B              14     -0.00654             -0.00140             -0.00000         *
 * B              15      0.00654             -0.00140             -0.00000         *
 * B              16     -0.00654              0.00140             -0.00000         *
 * B              17      0.00981              0.00181             -0.00533         *
 * B              18     -0.00981             -0.00181             -0.00533         *
 * B              19      0.00981             -0.00181              0.00533         *
 * B              20     -0.00981              0.00181              0.00533         *
 * B              21     -0.00981             -0.00181              0.00533         *
 * B              22      0.00981              0.00181              0.00533         *
 * B              23     -0.00981              0.00181             -0.00533         *
 * B              24      0.00981             -0.00181             -0.00533         *
 * B              25     -0.00363             -0.01645             -0.00000         *
 * B              26      0.00363              0.01645             -0.00000         *
 * B              27     -0.00363              0.01645              0.00000         *
 * B              28      0.00363             -0.01645             -0.00000         *
 *                                                                                  *
 ************************************************************************************

 *********** Symmetrised Stress Tensor ***********
 *                                               *
 *          Cartesian components (GPa)           *
 * --------------------------------------------- *
 *             x             y             z     *
 *                                               *
 *  x     -0.025268      0.000000      0.000000  *
 *  y      0.000000     -0.090117      0.000000  *
 *  z      0.000000      0.000000      0.032218  *
 *                                               *
 *  Pressure:    0.0277                          *
 *                                               *
 *************************************************
  
 +------------+-------------+-------------+-----------------+ <-- min LBFGS
 |    Step    |   lambda    |   F.delta'  |    enthalpy     | <-- min LBFGS
 +------------+-------------+-------------+-----------------+ <-- min LBFGS
 |  previous  |    0.000000 |    0.024156 |    -2320.316680 | <-- min LBFGS
 | trial step |    1.000000 |    0.020147 |    -2320.316798 | <-- min LBFGS
 +------------+-------------+-------------+-----------------+ <-- min LBFGS
  
 LBFGS: finished iteration     2 with enthalpy= -2.32031680E+003 eV
  
 +-----------+-----------------+-----------------+------------+-----+ <-- LBFGS
 | Parameter |      value      |    tolerance    |    units   | OK? | <-- LBFGS
 +-----------+-----------------+-----------------+------------+-----+ <-- LBFGS
 |  dE/ion   |   4.185333E-006 |   2.000000E-005 |         eV | Yes | <-- LBFGS
 |  |F|max   |   2.656921E-002 |   5.000000E-002 |       eV/A | Yes | <-- LBFGS
 |  |dR|max  |   2.727601E-004 |   1.000000E-003 |          A | Yes | <-- LBFGS
 |   Smax    |   9.011655E-002 |   1.000000E-001 |        GPa | Yes | <-- LBFGS
 +-----------+-----------------+-----------------+------------+-----+ <-- LBFGS
  
 LBFGS: Geometry optimization completed successfully.

================================================================================
 LBFGS: Final Configuration:
================================================================================

                           -------------------------------
                                      Unit Cell
                           -------------------------------
        Real Lattice(A)              Reciprocal Lattice(1/A)
     5.0319149     0.0000000     0.0000000        1.248666843   0.000000000   0.000000000
    -0.0000000     5.6029935     0.0000000        0.000000000   1.121397932   0.000000000
     0.0000000     0.0000000     6.9021524        0.000000000   0.000000000   0.910322602

                       Lattice parameters(A)       Cell Angles
                    a =      5.031915          alpha =   90.000000
                    b =      5.602993          beta  =   90.000000
                    c =      6.902152          gamma =   90.000000

                Current cell volume =           194.597810 A**3
                            density =             1.555557 amu/A**3
                                    =             2.583063 g/cm^3

                           -------------------------------
                                     Cell Contents
                           -------------------------------

            xxxxxxxxxxxxxxxxxxxxxxxxxxxxxxxxxxxxxxxxxxxxxxxxxxxxxxxxxxxxxxxxx
            x  Element         Atom        Fractional coordinates of atoms  x
            x                 Number           u          v          w      x
            x---------------------------------------------------------------x
            x  B                 1         0.652518   0.907369   0.290710   x
            x  B                 2         0.347482   0.092631   0.290710   x
            x  B                 3         0.152518   0.592631   0.209290   x
            x  B                 4         0.847482   0.407369   0.209290   x
            x  B                 5         0.347482   0.092631   0.709290   x
            x  B                 6         0.652518   0.907369   0.709290   x
            x  B                 7         0.847482   0.407369   0.790710   x
            x  B                 8         0.152518   0.592631   0.790710   x
            x  B                 9         0.147762   0.771442  -0.000000   x
            x  B                10         0.852238   0.228558  -0.000000   x
            x  B                11         0.647762   0.728558   0.500000   x
            x  B                12         0.352238   0.271442   0.500000   x
            x  B                13         0.835642   0.991565   0.500000   x
            x  B                14         0.164358   0.008435   0.500000   x
            x  B                15         0.335642   0.508435  -0.000000   x
            x  B                16         0.664358   0.491565  -0.000000   x
            x  B                17         0.339039   0.781366   0.374315   x
            x  B                18         0.660961   0.218634   0.374315   x
            x  B                19         0.839039   0.718634   0.125685   x
            x  B                20         0.160961   0.281366   0.125685   x
            x  B                21         0.660961   0.218634   0.625685   x
            x  B                22         0.339039   0.781366   0.625685   x
            x  B                23         0.160961   0.281366   0.874315   x
            x  B                24         0.839039   0.718634   0.874315   x
            x  B                25         0.170186   0.520647   0.500000   x
            x  B                26         0.829814   0.479353   0.500000   x
            x  B                27         0.670186   0.979353  -0.000000   x
            x  B                28         0.329814   0.020647  -0.000000   x
            xxxxxxxxxxxxxxxxxxxxxxxxxxxxxxxxxxxxxxxxxxxxxxxxxxxxxxxxxxxxxxxxx


 LBFGS: Final Enthalpy     = -2.32031680E+003 eV
 LBFGS: Final <frequency>  =    1590.25497 cm-1
 LBFGS: Final bulk modulus =     274.48089 GPa
  
  **********************************************************
  *** There were at least     1 warnings during this run ***
  *** => please check the whole of this file carefully!  ***
  **********************************************************

 ******************************** Symmetrised Forces ********************************
 *                                                                                  *
 *                           Cartesian components (eV/A)                            *
 * -------------------------------------------------------------------------------- *
 *                         x                    y                    z              *
 *                                                                                  *
 * B               1      0.01150              0.01321             -0.01998         *
 * B               2     -0.01150             -0.01321             -0.01998         *
 * B               3      0.01150             -0.01321              0.01998         *
 * B               4     -0.01150              0.01321              0.01998         *
 * B               5     -0.01150             -0.01321              0.01998         *
 * B               6      0.01150              0.01321              0.01998         *
 * B               7     -0.01150              0.01321             -0.01998         *
 * B               8      0.01150             -0.01321             -0.01998         *
 * B               9      0.01048             -0.01471              0.00000         *
 * B              10     -0.01048              0.01471             -0.00000         *
 * B              11      0.01048              0.01471              0.00000         *
 * B              12     -0.01048             -0.01471              0.00000         *
 * B              13      0.00654              0.00140             -0.00000         *
 * B              14     -0.00654             -0.00140             -0.00000         *
 * B              15      0.00654             -0.00140             -0.00000         *
 * B              16     -0.00654              0.00140             -0.00000         *
 * B              17      0.00981              0.00181             -0.00533         *
 * B              18     -0.00981             -0.00181             -0.00533         *
 * B              19      0.00981             -0.00181              0.00533         *
 * B              20     -0.00981              0.00181              0.00533         *
 * B              21     -0.00981             -0.00181              0.00533         *
 * B              22      0.00981              0.00181              0.00533         *
 * B              23     -0.00981              0.00181             -0.00533         *
 * B              24      0.00981             -0.00181             -0.00533         *
 * B              25     -0.00363             -0.01645             -0.00000         *
 * B              26      0.00363              0.01645             -0.00000         *
 * B              27     -0.00363              0.01645              0.00000         *
 * B              28      0.00363             -0.01645             -0.00000         *
 *                                                                                  *
 ************************************************************************************

 *********** Symmetrised Stress Tensor ***********
 *                                               *
 *          Cartesian components (GPa)           *
 * --------------------------------------------- *
 *             x             y             z     *
 *                                               *
 *  x     -0.025268      0.000000      0.000000  *
 *  y      0.000000     -0.090117      0.000000  *
 *  z      0.000000      0.000000      0.032218  *
 *                                               *
 *  Pressure:    0.0277                          *
 *                                               *
 *************************************************

 Pseudo atomic calculation performed for B 2s2 2p1

 Converged in 15 iterations to a total energy of -76.1705 eV
Charge spilling parameter for spin component 1 = 0.51%

            Orbital Populations       
     Ion    Atom   Orbital             Charge
  -------------------------------------------
      B     1      S                    0.783
      B     1      Px                   0.712
      B     1      Py                   0.739
      B     1      Pz                   0.767
      B     2      S                    0.782
      B     2      Px                   0.715
      B     2      Py                   0.737
      B     2      Pz                   0.767
      B     3      S                    0.778
      B     3      Px                   0.719
      B     3      Py                   0.741
      B     3      Pz                   0.766
      B     4      S                    0.780
      B     4      Px                   0.713
      B     4      Py                   0.738
      B     4      Pz                   0.766
      B     5      S                    0.783
      B     5      Px                   0.712
      B     5      Py                   0.739
      B     5      Pz                   0.767
      B     6      S                    0.782
      B     6      Px                   0.715
      B     6      Py                   0.737
      B     6      Pz                   0.767
      B     7      S                    0.778
      B     7      Px                   0.719
      B     7      Py                   0.741
      B     7      Pz                   0.766
      B     8      S                    0.780
      B     8      Px                   0.713
      B     8      Py                   0.738
      B     8      Pz                   0.766
      B     9      S                    0.766
      B     9      Px                   0.705
      B     9      Py                   0.843
      B     9      Pz                   0.657
      B    10      S                    0.766
      B    10      Px                   0.704
      B    10      Py                   0.843
      B    10      Pz                   0.657
      B    11      S                    0.769
      B    11      Px                   0.700
      B    11      Py                   0.856
      B    11      Pz                   0.654
      B    12      S                    0.769
      B    12      Px                   0.700
      B    12      Py                   0.856
      B    12      Pz                   0.654
      B    13      S                    0.764
      B    13      Px                   0.914
      B    13      Py                   0.641
      B    13      Pz                   0.672
      B    14      S                    0.764
      B    14      Px                   0.914
      B    14      Py                   0.641
      B    14      Pz                   0.671
      B    15      S                    0.765
      B    15      Px                   0.916
      B    15      Py                   0.639
      B    15      Pz                   0.669
      B    16      S                    0.765
      B    16      Px                   0.916
      B    16      Py                   0.639
      B    16      Pz                   0.669
      B    17      S                    0.762
      B    17      Px                   0.752
      B    17      Py                   0.764
      B    17      Pz                   0.761
      B    18      S                    0.759
      B    18      Px                   0.751
      B    18      Py                   0.765
      B    18      Pz                   0.750
      B    19      S                    0.763
      B    19      Px                   0.746
      B    19      Py                   0.763
      B    19      Pz                   0.761
      B    20      S                    0.763
      B    20      Px                   0.747
      B    20      Py                   0.761
      B    20      Pz                   0.759
      B    21      S                    0.762
      B    21      Px                   0.752
      B    21      Py                   0.764
      B    21      Pz                   0.761
      B    22      S                    0.759
      B    22      Px                   0.751
      B    22      Py                   0.765
      B    22      Pz                   0.750
      B    23      S                    0.763
      B    23      Px                   0.746
      B    23      Py                   0.763
      B    23      Pz                   0.761
      B    24      S                    0.763
      B    24      Px                   0.747
      B    24      Py                   0.761
      B    24      Pz                   0.759
      B    25      S                    0.855
      B    25      Px                   0.892
      B    25      Py                   0.693
      B    25      Pz                   0.528
      B    26      S                    0.855
      B    26      Px                   0.892
      B    26      Py                   0.693
      B    26      Pz                   0.528
      B    27      S                    0.854
      B    27      Px                   0.887
      B    27      Py                   0.698
      B    27      Pz                   0.531
      B    28      S                    0.854
      B    28      Px                   0.887
      B    28      Py                   0.698
      B    28      Pz                   0.531
  -------------------------------------------
                           Total:      84.000
  -------------------------------------------

     Atomic Populations (Mulliken)
     -----------------------------
Species          Ion     s      p      d      f     Total  Charge (e)
=====================================================================
  B               1     0.78   2.22   0.00   0.00   3.00    -0.00
  B               2     0.78   2.22   0.00   0.00   3.00    -0.00
  B               3     0.78   2.22   0.00   0.00   3.00    -0.00
  B               4     0.78   2.22   0.00   0.00   3.00    -0.00
  B               5     0.78   2.22   0.00   0.00   3.00    -0.00
  B               6     0.78   2.22   0.00   0.00   3.00    -0.00
  B               7     0.78   2.22   0.00   0.00   3.00    -0.00
  B               8     0.78   2.22   0.00   0.00   3.00    -0.00
  B               9     0.77   2.21   0.00   0.00   2.97     0.03
  B              10     0.77   2.21   0.00   0.00   2.97     0.03
  B              11     0.77   2.21   0.00   0.00   2.97     0.03
  B              12     0.77   2.21   0.00   0.00   2.97     0.03
  B              13     0.76   2.23   0.00   0.00   2.99     0.01
  B              14     0.76   2.23   0.00   0.00   2.99     0.01
  B              15     0.76   2.23   0.00   0.00   2.99     0.01
  B              16     0.76   2.23   0.00   0.00   2.99     0.01
  B              17     0.76   2.27   0.00   0.00   3.03    -0.03
  B              18     0.76   2.27   0.00   0.00   3.03    -0.03
  B              19     0.76   2.27   0.00   0.00   3.03    -0.03
  B              20     0.76   2.27   0.00   0.00   3.03    -0.03
  B              21     0.76   2.27   0.00   0.00   3.03    -0.03
  B              22     0.76   2.27   0.00   0.00   3.03    -0.03
  B              23     0.76   2.27   0.00   0.00   3.03    -0.03
  B              24     0.76   2.27   0.00   0.00   3.03    -0.03
  B              25     0.85   2.11   0.00   0.00   2.97     0.03
  B              26     0.85   2.11   0.00   0.00   2.97     0.03
  B              27     0.85   2.11   0.00   0.00   2.97     0.03
  B              28     0.85   2.11   0.00   0.00   2.97     0.03
=====================================================================

                 Bond                   Population      Length (A)
======================================================================
              B 15 -- B 16                   1.11        1.65677
              B 13 -- B 14                   1.11        1.65677
              B 9  -- B 28                   1.17        1.66998
              B 12 -- B 25                   1.17        1.66998
              B 11 -- B 26                   1.17        1.66998
              B 10 -- B 27                   1.17        1.66998
              B 25 -- B 26                   0.98        1.72828
              B 27 -- B 28                   0.98        1.72828
              B 20 -- B 23                   0.52        1.73499
              B 19 -- B 24                   0.52        1.73499
              B 18 -- B 21                   0.52        1.73499
              B 17 -- B 22                   0.52        1.73499
              B 11 -- B 13                   0.54        1.75081
              B 12 -- B 14                   0.54        1.75081
              B 10 -- B 16                   0.54        1.75081
              B 9  -- B 15                   0.54        1.75081
              B 6  -- B 11                   0.57        1.75814
              B 1  -- B 11                   0.57        1.75814
              B 5  -- B 12                   0.57        1.75814
              B 2  -- B 12                   0.57        1.75814
              B 4  -- B 10                   0.57        1.75814
              B 3  -- B 9                    0.57        1.75814
              B 8  -- B 9                    0.57        1.75814
              B 7  -- B 10                   0.57        1.75814
              B 15 -- B 23                   0.49        1.77308
              B 15 -- B 20                   0.49        1.77308
              B 13 -- B 21                   0.49        1.77308
              B 16 -- B 24                   0.49        1.77308
              B 16 -- B 19                   0.49        1.77308
              B 14 -- B 22                   0.49        1.77308
              B 13 -- B 18                   0.49        1.77308
              B 14 -- B 17                   0.49        1.77308
              B 6  -- B 13                   0.58        1.77718
              B 1  -- B 13                   0.58        1.77718
              B 5  -- B 14                   0.58        1.77718
              B 4  -- B 16                   0.58        1.77718
              B 2  -- B 14                   0.58        1.77718
              B 7  -- B 16                   0.58        1.77718
              B 3  -- B 15                   0.58        1.77718
              B 8  -- B 15                   0.58        1.77718
              B 12 -- B 21                   0.42        1.80371
              B 12 -- B 18                   0.42        1.80371
              B 11 -- B 22                   0.42        1.80371
              B 10 -- B 23                   0.42        1.80371
              B 9  -- B 24                   0.42        1.80371
              B 11 -- B 17                   0.42        1.80371
              B 10 -- B 20                   0.42        1.80371
              B 9  -- B 19                   0.42        1.80371
              B 3  -- B 17                   0.73        1.81564
              B 8  -- B 22                   0.73        1.81564
              B 1  -- B 19                   0.73        1.81564
              B 4  -- B 18                   0.73        1.81564
              B 2  -- B 20                   0.73        1.81564
              B 7  -- B 21                   0.73        1.81564
              B 6  -- B 24                   0.73        1.81564
              B 5  -- B 23                   0.73        1.81564
              B 2  -- B 18                   0.51        1.82198
              B 5  -- B 21                   0.51        1.82198
              B 3  -- B 19                   0.51        1.82198
              B 8  -- B 24                   0.51        1.82198
              B 4  -- B 20                   0.51        1.82198
              B 7  -- B 23                   0.51        1.82198
              B 1  -- B 17                   0.51        1.82198
              B 6  -- B 22                   0.51        1.82198
              B 4  -- B 19                   0.54        1.83750
              B 3  -- B 20                   0.54        1.83750
              B 8  -- B 23                   0.54        1.83750
              B 7  -- B 24                   0.54        1.83750
              B 1  -- B 18                   0.54        1.83750
              B 6  -- B 21                   0.54        1.83750
              B 2  -- B 17                   0.54        1.83750
              B 5  -- B 22                   0.54        1.83750
              B 7  -- B 8                    0.40        1.85296
              B 3  -- B 4                    0.40        1.85296
              B 5  -- B 6                    0.40        1.85296
              B 1  -- B 2                    0.40        1.85296
              B 22 -- B 25                   0.39        1.89958
              B 17 -- B 25                   0.39        1.89958
              B 24 -- B 27                   0.39        1.89958
              B 23 -- B 28                   0.39        1.89958
              B 21 -- B 26                   0.39        1.89958
              B 20 -- B 28                   0.39        1.89958
              B 19 -- B 27                   0.39        1.89958
              B 18 -- B 26                   0.39        1.89958
              B 8  -- B 25                   0.27        2.04859
              B 7  -- B 26                   0.27        2.04859
              B 4  -- B 26                   0.27        2.04859
              B 3  -- B 25                   0.27        2.04859
              B 6  -- B 27                   0.27        2.04859
              B 5  -- B 28                   0.27        2.04859
              B 2  -- B 28                   0.27        2.04859
              B 1  -- B 27                   0.27        2.04859
              B 8  -- B 26                  -0.14        2.65815
              B 3  -- B 26                  -0.14        2.65815
              B 7  -- B 25                  -0.14        2.65815
              B 4  -- B 25                  -0.14        2.65815
              B 2  -- B 27                  -0.14        2.65815
              B 5  -- B 27                  -0.14        2.65815
              B 1  -- B 28                  -0.14        2.65815
              B 6  -- B 28                  -0.14        2.65815
              B 11 -- B 25                  -0.21        2.67059
              B 10 -- B 28                  -0.21        2.67059
              B 9  -- B 27                  -0.21        2.67059
              B 12 -- B 26                  -0.21        2.67059
              B 15 -- B 28                  -0.22        2.73323
              B 14 -- B 25                  -0.22        2.73323
              B 16 -- B 27                  -0.22        2.73323
              B 13 -- B 26                  -0.22        2.73323
              B 12 -- B 20                  -0.11        2.75760
              B 11 -- B 19                  -0.11        2.75760
              B 9  -- B 17                  -0.11        2.75760
              B 12 -- B 23                  -0.11        2.75760
              B 11 -- B 24                  -0.11        2.75760
              B 10 -- B 18                  -0.11        2.75760
              B 9  -- B 22                  -0.11        2.75760
              B 10 -- B 21                  -0.11        2.75760
              B 8  -- B 12                  -0.13        2.87658
              B 7  -- B 11                  -0.13        2.87658
              B 4  -- B 11                  -0.13        2.87658
              B 3  -- B 12                  -0.13        2.87658
[...]
      B     7      Pz                   0.766
      B     8      S                    0.780
      B     8      Px                   0.713
      B     8      Py                   0.738
      B     8      Pz                   0.766
      B     9      S                    0.766
      B     9      Px                   0.704
      B     9      Py                   0.843
      B     9      Pz                   0.657
      B    10      S                    0.766
      B    10      Px                   0.704
      B    10      Py                   0.843
      B    10      Pz                   0.657
      B    11      S                    0.769
      B    11      Px                   0.700
      B    11      Py                   0.856
      B    11      Pz                   0.654
      B    12      S                    0.769
      B    12      Px                   0.700
      B    12      Py                   0.856
      B    12      Pz                   0.654
      B    13      S                    0.764
      B    13      Px                   0.914
      B    13      Py                   0.641
      B    13      Pz                   0.671
      B    14      S                    0.764
      B    14      Px                   0.914
      B    14      Py                   0.641
      B    14      Pz                   0.671
      B    15      S                    0.765
      B    15      Px                   0.916
      B    15      Py                   0.639
      B    15      Pz                   0.669
      B    16      S                    0.765
      B    16      Px                   0.916
      B    16      Py                   0.639
      B    16      Pz                   0.669
      B    17      S                    0.762
      B    17      Px                   0.752
      B    17      Py                   0.764
      B    17      Pz                   0.761
      B    18      S                    0.759
      B    18      Px                   0.751
      B    18      Py                   0.765
      B    18      Pz                   0.750
      B    19      S                    0.763
      B    19      Px                   0.746
      B    19      Py                   0.763
      B    19      Pz                   0.761
      B    20      S                    0.763
      B    20      Px                   0.747
      B    20      Py                   0.761
      B    20      Pz                   0.759
      B    21      S                    0.762
      B    21      Px                   0.752
      B    21      Py                   0.764
      B    21      Pz                   0.761
      B    22      S                    0.759
      B    22      Px                   0.751
      B    22      Py                   0.765
      B    22      Pz                   0.750
      B    23      S                    0.763
      B    23      Px                   0.746
      B    23      Py                   0.763
      B    23      Pz                   0.761
      B    24      S                    0.763
      B    24      Px                   0.747
      B    24      Py                   0.761
      B    24      Pz                   0.759
      B    25      S                    0.856
      B    25      Px                   0.892
      B    25      Py                   0.693
      B    25      Pz                   0.528
      B    26      S                    0.856
      B    26      Px                   0.892
      B    26      Py                   0.693
      B    26      Pz                   0.528
      B    27      S                    0.855
      B    27      Px                   0.887
      B    27      Py                   0.698
      B    27      Pz                   0.531
      B    28      S                    0.855
      B    28      Px                   0.887
      B    28      Py                   0.698
      B    28      Pz                   0.532
  -------------------------------------------
                           Total:      84.000
  -------------------------------------------

     Atomic Populations (Mulliken)
     -----------------------------
Species          Ion     s      p      d      f     Total  Charge (e)
=====================================================================
  B               1     0.78   2.22   0.00   0.00   3.00    -0.00
  B               2     0.78   2.22   0.00   0.00   3.00    -0.00
  B               3     0.78   2.22   0.00   0.00   3.00    -0.00
  B               4     0.78   2.22   0.00   0.00   3.00    -0.00
  B               5     0.78   2.22   0.00   0.00   3.00    -0.00
  B               6     0.78   2.22   0.00   0.00   3.00    -0.00
  B               7     0.78   2.22   0.00   0.00   3.00    -0.00
  B               8     0.78   2.22   0.00   0.00   3.00    -0.00
  B               9     0.77   2.21   0.00   0.00   2.97     0.03
  B              10     0.77   2.21   0.00   0.00   2.97     0.03
  B              11     0.77   2.21   0.00   0.00   2.97     0.03
  B              12     0.77   2.21   0.00   0.00   2.97     0.03
  B              13     0.76   2.23   0.00   0.00   2.99     0.01
  B              14     0.76   2.23   0.00   0.00   2.99     0.01
  B              15     0.76   2.23   0.00   0.00   2.99     0.01
  B              16     0.76   2.23   0.00   0.00   2.99     0.01
  B              17     0.76   2.27   0.00   0.00   3.03    -0.03
  B              18     0.76   2.27   0.00   0.00   3.03    -0.03
  B              19     0.76   2.27   0.00   0.00   3.03    -0.03
  B              20     0.76   2.27   0.00   0.00   3.03    -0.03
  B              21     0.76   2.27   0.00   0.00   3.03    -0.03
  B              22     0.76   2.27   0.00   0.00   3.03    -0.03
  B              23     0.76   2.27   0.00   0.00   3.03    -0.03
  B              24     0.76   2.27   0.00   0.00   3.03    -0.03
  B              25     0.86   2.11   0.00   0.00   2.97     0.03
  B              26     0.86   2.11   0.00   0.00   2.97     0.03
  B              27     0.86   2.11   0.00   0.00   2.97     0.03
  B              28     0.86   2.11   0.00   0.00   2.97     0.03
=====================================================================

                 Bond                   Population      Length (A)
======================================================================
              B 13 -- B 14                   1.11        1.65677
              B 15 -- B 16                   1.11        1.65677
              B 12 -- B 25                   1.17        1.66998
              B 11 -- B 26                   1.17        1.66998
              B 10 -- B 27                   1.17        1.66998
              B 9  -- B 28                   1.17        1.66998
              B 25 -- B 26                   0.98        1.72828
              B 27 -- B 28                   0.98        1.72828
              B 20 -- B 23                   0.52        1.73499
              B 19 -- B 24                   0.52        1.73499
              B 18 -- B 21                   0.52        1.73499
              B 17 -- B 22                   0.52        1.73499
              B 10 -- B 16                   0.54        1.75081
              B 12 -- B 14                   0.54        1.75081
              B 9  -- B 15                   0.54        1.75081
              B 11 -- B 13                   0.54        1.75081
              B 3  -- B 9                    0.57        1.75814
              B 1  -- B 11                   0.57        1.75814
              B 2  -- B 12                   0.57        1.75814
              B 4  -- B 10                   0.57        1.75814
              B 8  -- B 9                    0.57        1.75814
              B 6  -- B 11                   0.57        1.75814
              B 7  -- B 10                   0.57        1.75814
              B 5  -- B 12                   0.57        1.75814
              B 16 -- B 24                   0.49        1.77308
              B 16 -- B 19                   0.49        1.77308
              B 15 -- B 23                   0.49        1.77308
              B 15 -- B 20                   0.49        1.77308
              B 14 -- B 22                   0.49        1.77308
              B 14 -- B 17                   0.49        1.77308
              B 13 -- B 21                   0.49        1.77308
              B 13 -- B 18                   0.49        1.77308
              B 2  -- B 14                   0.58        1.77718
              B 4  -- B 16                   0.58        1.77718
              B 3  -- B 15                   0.58        1.77718
              B 5  -- B 14                   0.58        1.77718
              B 1  -- B 13                   0.58        1.77718
              B 8  -- B 15                   0.58        1.77718
              B 7  -- B 16                   0.58        1.77718
              B 6  -- B 13                   0.58        1.77718
              B 12 -- B 21                   0.42        1.80371
              B 12 -- B 18                   0.42        1.80371
              B 9  -- B 24                   0.42        1.80371
              B 9  -- B 19                   0.42        1.80371
              B 11 -- B 22                   0.42        1.80371
              B 11 -- B 17                   0.42        1.80371
              B 10 -- B 23                   0.42        1.80371
              B 10 -- B 20                   0.42        1.80371
              B 8  -- B 22                   0.73        1.81564
              B 6  -- B 24                   0.73        1.81564
              B 5  -- B 23                   0.73        1.81564
              B 7  -- B 21                   0.73        1.81564
              B 3  -- B 17                   0.73        1.81564
              B 2  -- B 20                   0.73        1.81564
              B 1  -- B 19                   0.73        1.81564
              B 4  -- B 18                   0.73        1.81564
              B 4  -- B 20                   0.51        1.82198
              B 7  -- B 23                   0.51        1.82198
              B 3  -- B 19                   0.51        1.82198
              B 1  -- B 17                   0.51        1.82198
              B 8  -- B 24                   0.51        1.82198
              B 6  -- B 22                   0.51        1.82198
              B 2  -- B 18                   0.51        1.82198
              B 5  -- B 21                   0.51        1.82198
              B 4  -- B 19                   0.54        1.83750
              B 7  -- B 24                   0.54        1.83750
              B 3  -- B 20                   0.54        1.83750
              B 2  -- B 17                   0.54        1.83750
              B 8  -- B 23                   0.54        1.83750
              B 5  -- B 22                   0.54        1.83750
              B 1  -- B 18                   0.54        1.83750
              B 6  -- B 21                   0.54        1.83750
              B 7  -- B 8                    0.40        1.85296
              B 3  -- B 4                    0.40        1.85296
              B 5  -- B 6                    0.40        1.85296
              B 1  -- B 2                    0.40        1.85296
              B 21 -- B 26                   0.39        1.89958
              B 18 -- B 26                   0.39        1.89958
              B 23 -- B 28                   0.39        1.89958
              B 20 -- B 28                   0.39        1.89958
              B 24 -- B 27                   0.39        1.89958
              B 22 -- B 25                   0.39        1.89958
              B 19 -- B 27                   0.39        1.89958
              B 17 -- B 25                   0.39        1.89958
              B 8  -- B 25                   0.27        2.04859
              B 7  -- B 26                   0.27        2.04859
              B 6  -- B 27                   0.27        2.04859
              B 5  -- B 28                   0.27        2.04859
              B 4  -- B 26                   0.27        2.04859
              B 3  -- B 25                   0.27        2.04859
              B 2  -- B 28                   0.27        2.04859
              B 1  -- B 27                   0.27        2.04859
              B 7  -- B 25                  -0.14        2.65815
              B 4  -- B 25                  -0.14        2.65815
              B 8  -- B 26                  -0.14        2.65815
              B 6  -- B 28                  -0.14        2.65815
              B 5  -- B 27                  -0.14        2.65815
              B 3  -- B 26                  -0.14        2.65815
              B 2  -- B 27                  -0.14        2.65815
              B 1  -- B 28                  -0.14        2.65815
              B 12 -- B 26                  -0.21        2.67059
              B 11 -- B 25                  -0.21        2.67059
              B 10 -- B 28                  -0.21        2.67059
              B 9  -- B 27                  -0.21        2.67059
              B 15 -- B 28                  -0.22        2.73323
              B 16 -- B 27                  -0.22        2.73323
              B 13 -- B 26                  -0.22        2.73323
              B 14 -- B 25                  -0.22        2.73323
              B 11 -- B 24                  -0.11        2.75760
              B 11 -- B 19                  -0.11        2.75760
              B 10 -- B 21                  -0.11        2.75760
              B 10 -- B 18                  -0.11        2.75760
              B 12 -- B 23                  -0.11        2.75760
              B 12 -- B 20                  -0.11        2.75760
              B 9  -- B 22                  -0.11        2.75760
              B 9  -- B 17                  -0.11        2.75760
              B 7  -- B 11                  -0.13        2.87658
              B 8  -- B 12                  -0.13        2.87658
              B 6  -- B 10                  -0.13        2.87658
              B 5  -- B 9                   -0.13        2.87658
              B 4  -- B 11                  -0.13        2.87658
              B 3  -- B 12                  -0.13        2.87658
              B 1  -- B 10                  -0.13        2.87658
              B 2  -- B 9                   -0.13        2.87658
              B 10 -- B 24                  -0.34        2.88043
              B 10 -- B 19                  -0.34        2.88043
              B 9  -- B 23                  -0.34        2.88043
              B 9  -- B 20                  -0.34        2.88043
              B 12 -- B 22                  -0.34        2.88043
              B 12 -- B 17                  -0.34        2.88043
              B 11 -- B 21                  -0.34        2.88043
              B 11 -- B 18                  -0.34        2.88043
              B 4  -- B 23                  -0.18        2.88655
              B 3  -- B 24                  -0.18        2.88655
              B 8  -- B 19                  -0.18        2.88655
              B 7  -- B 20                  -0.18        2.88655
              B 1  -- B 22                  -0.18        2.88655
              B 6  -- B 17                  -0.18        2.88655
              B 2  -- B 21                  -0.18        2.88655
              B 5  -- B 18                  -0.18        2.88655
              B 4  -- B 7                   -0.22        2.88911
              B 3  -- B 8                   -0.22        2.88911
              B 2  -- B 5                   -0.22        2.88911
              B 1  -- B 6                   -0.22        2.88911
              B 9  -- B 16                  -0.26        2.89412
              B 11 -- B 14                  -0.26        2.89412
              B 10 -- B 15                  -0.26        2.89412
              B 12 -- B 13                  -0.26        2.89412
              B 16 -- B 23                  -0.31        2.89550
              B 16 -- B 20                  -0.31        2.89550
              B 15 -- B 24                  -0.31        2.89550
              B 15 -- B 19                  -0.31        2.89550
              B 14 -- B 21                  -0.31        2.89550
              B 14 -- B 18                  -0.31        2.89550
              B 13 -- B 22                  -0.31        2.89550
              B 13 -- B 17                  -0.31        2.89550
              B 4  -- B 24                  -0.17        2.89637
              B 3  -- B 23                  -0.17        2.89637
              B 7  -- B 19                  -0.17        2.89637
              B 8  -- B 20                  -0.17        2.89637
              B 2  -- B 22                  -0.17        2.89637
              B 6  -- B 18                  -0.17        2.89637
              B 5  -- B 17                  -0.17        2.89637
              B 1  -- B 21                  -0.17        2.89637
              B 4  -- B 15                  -0.25        2.90538
              B 7  -- B 15                  -0.25        2.90538
              B 3  -- B 16                  -0.25        2.90538
              B 8  -- B 16                  -0.25        2.90538
              B 6  -- B 14                  -0.25        2.90538
              B 1  -- B 14                  -0.25        2.90538
              B 2  -- B 13                  -0.25        2.90538
              B 5  -- B 13                  -0.25        2.90538
              B 24 -- B 26                  -0.12        2.91110
              B 19 -- B 26                  -0.12        2.91110
              B 23 -- B 25                  -0.12        2.91110
              B 22 -- B 28                  -0.12        2.91110
              B 21 -- B 27                  -0.12        2.91110
              B 20 -- B 25                  -0.12        2.91110
              B 18 -- B 27                  -0.12        2.91110
              B 17 -- B 28                  -0.12        2.91110
              B 4  -- B 9                   -0.17        2.92079
              B 7  -- B 9                   -0.17        2.92079
              B 3  -- B 10                  -0.17        2.92079
              B 2  -- B 11                  -0.17        2.92079
              B 1  -- B 12                  -0.17        2.92079
              B 8  -- B 10                  -0.17        2.92079
              B 6  -- B 12                  -0.17        2.92079
              B 5  -- B 11                  -0.17        2.92079
              B 23 -- B 24                  -0.21        2.93710
              B 19 -- B 20                  -0.21        2.93710
              B 21 -- B 22                  -0.21        2.93710
              B 17 -- B 18                  -0.21        2.93710
              B 2  -- B 25                  -0.15        2.93834
              B 1  -- B 26                  -0.15        2.93834
              B 6  -- B 26                  -0.15        2.93834
              B 5  -- B 25                  -0.15        2.93834
              B 4  -- B 27                  -0.15        2.93834
              B 3  -- B 28                  -0.15        2.93834
              B 8  -- B 28                  -0.15        2.93834
              B 7  -- B 27                  -0.15        2.93834
              B 11 -- B 12                  -0.06        2.96161
              B 9  -- B 10                  -0.06        2.96161
======================================================================

Initialisation time =      1.88 s
Calculation time    =     15.53 s
Finalisation time   =      0.01 s
Total time          =     17.43 s
Peak Memory Use     = 585656 kB
  
Overall parallel efficiency rating: Very good (89%)                             
  
Data was distributed by:-
k-point (4-way); efficiency rating: Very good (89%)                             
  
Parallel notes:
1) Calculation only took 17.4 s, so efficiency estimates may be inaccurate.     
